title                   = Amber03 Alanine Dipeptide NVT equilibration 
define                  = -DPOSRES  ; position restrain the protein for equilibrium of solvent
; RUN CONTROL PARAMETERS
integrator               = md
; Start time and timestep in ps
tinit                    = 0
dt                       = 0.0005
nsteps                   = 50000 
; For exact run continuation or redoing part of a run
init_step                = 0

; LANGEVIN DYNAMICS OPTIONS
; Temperature, friction coefficient (amu/ps) and random seed
bd-fric                  = 0
ld_seed                  = 1993


; OUTPUT CONTROL OPTIONS
; Output frequency for coords (x), velocities (v) and forces (f)
nstxout                  = 500
nstvout                  = 500
nstfout                  = 500

; Output frequency for energies to log file and energy file
nstlog                   = 1000
nstenergy                = 1000

; OPTIONS FOR BONDS    
constraints              = none
; Type of constraint algorithm
; constraint_algorithm     = Lincs
; Do not constrain the start configuration
continuation     = no
; Use successive overrelaxation to reduce the number of shake iterations
; Shake-SOR                = no
; Relative tolerance of shake
; shake_tol                = 1e-04
; Highest order in the expansion of the constraint coupling matrix
; lincs_order              = 4
; Number of iterations in the final step of LINCS. 1 is fine for
; normal simulations, but use 2 to conserve energy in NVE runs.
; For energy minimization with constraints it should be 4 to 8.
; lincs-iter               = 1
; Lincs will write a warning to the stderr if in one step a bond
; rotates over more degrees than
; lincs_warnangle          = 30
; Convert harmonic bonds to morse potentials
; morse                    = no


; NEIGHBORSEARCHING PARAMETERS
; nblist update frequency
nstlist                  = 10
; ns algorithm (simple or grid)
ns_type                  = grid
; Periodic boundary conditions: xyz (default), no (vacuum)
; or full (infinite systems only)
pbc                      = xyz
; nblist cut-off        
rlist                    = 1.0
domain-decomposition     = no

; OPTIONS FOR ELECTROSTATICS AND VDW
; Method for doing electrostatics
coulombtype              = PME
rcoulomb_switch          = 0
rcoulomb                 = 1.0
; Dielectric constant (DC) for cut-off or DC of reaction field
epsilon_r                = 1
; Method for doing Van der Waals
vdw-type                 = Cut-off
; cut-off lengths       
rvdw_switch              = 0
rvdw                     = 1.0
; Apply long range dispersion corrections for Energy and Pressure
DispCorr                 = No
; Extension of the potential lookup tables beyond the cut-off
table-extension          = 1
; Spacing for the PME/PPPM FFT grid
fourierspacing           = 0.12
; FFT grid size, when a value is 0 fourierspacing will be used
fourier_nx               = 0
fourier_ny               = 0
fourier_nz               = 0
; EWALD/PME/PPPM parameters
pme_order                = 4
ewald_rtol               = 1e-05
ewald_geometry           = 3d
epsilon_surface          = 0
optimize_fft             = no


; OPTIONS FOR WEAK COUPLING ALGORITHMS
; Temperature coupling  
Tcoupl                   = v-rescale ; modified Berendsen thermostat
; Groups to couple separately
tc_grps                  = Protein SOL ; two coupling groups - more accurate
; Time constant (ps) and reference temperature (K)
tau_t                    = 0.1 0.1
ref_t                    = 300 300
; Pressure coupling     
Pcoupl                   = no
Pcoupltype               = isotropic
; Time constant (ps), compressibility (1/bar) and reference P (bar)
tau_p                    = 1.0
compressibility          = 4.5e-5
ref_p                    = 1.0
; Random seed for Andersen thermostat
andersen_seed            = 815131


; GENERATE VELOCITIES FOR STARTUP RUN
gen_vel                  = yes
gen_temp                 = 300
gen_seed                 = 173529

